CG:   Iteration   Error Estimate        Tolerance
CG:           1   8.967533941E+06   3.708160389E+02
CG:           2   3.977229952E+06   3.708160389E+02
CG:           3   1.961111045E+06   3.708160389E+02
CG:           4   6.896012651E+05   3.708160389E+02
CG:           5   2.009802056E+05   3.708160389E+02
CG:           6   8.551587396E+04   3.708160389E+02
CG:           7   1.668886970E+04   3.708160389E+02
CG:           8   5.537811701E+03   3.708160389E+02
CG:           9   1.444466372E+03   3.708160389E+02
CG:          10   7.104487672E+02   3.708160389E+02
CG:          11   2.793515840E+02   3.708160389E+02
CG converged to    3.708160389E+02  in         11  iterations. 
Last iteration error estimate:    2.793515840E+02
