CG:   Iteration   Error Estimate        Tolerance
CG:           1   2.882236662E-03   1.035238499E-08
CG:           2   3.946033367E-04   1.035238499E-08
CG:           3   2.897825215E-05   1.035238499E-08
CG:           4   4.234100144E-06   1.035238499E-08
CG:           5   4.441927415E-07   1.035238499E-08
CG:           6   7.977521642E-08   1.035238499E-08
CG:           7   1.640000174E-08   1.035238499E-08
CG:           8   1.623310240E-09   1.035238499E-08
CG converged to    1.035238499E-08  in          8  iterations. 
Last iteration error estimate:    1.623310240E-09
