CG:   Iteration   Error Estimate        Tolerance
CG:           1   6.896255141E+01   6.151655093E-05
CG:           2   5.345724204E+01   6.151655093E-05
CG:           3   2.769067094E+01   6.151655093E-05
CG:           4   5.304217695E+00   6.151655093E-05
CG:           5   2.691204260E+00   6.151655093E-05
CG:           6   1.637480757E+00   6.151655093E-05
CG:           7   7.550138336E-01   6.151655093E-05
CG:           8   4.233051744E-01   6.151655093E-05
CG:           9   1.051281695E-01   6.151655093E-05
CG:          10   6.070613727E-02   6.151655093E-05
CG:          11   3.907373202E-02   6.151655093E-05
CG:          12   2.017705801E-02   6.151655093E-05
CG:          13   1.179203049E-02   6.151655093E-05
CG:          14   5.154716631E-03   6.151655093E-05
CG:          15   9.171637560E-04   6.151655093E-05
CG:          16   3.649223137E-04   6.151655093E-05
CG:          17   9.500341185E-05   6.151655093E-05
CG:          18   5.236372781E-05   6.151655093E-05
CG converged to    6.151655093E-05  in         18  iterations. 
Last iteration error estimate:    5.236372781E-05
num_coarse_dofs:                     100
num_sub_domains:                               8
num_total_cells:                            1728
num_dofs (sub-assembled):                   5184
