G:   Iteration   Error Estimate        Tolerance
CG:           1   2.847171842E+01   2.859270932E-07
CG:           2   1.588839838E+01   2.859270932E-07
CG:           3   8.252803991E+00   2.859270932E-07
CG:           4   4.812655731E+00   2.859270932E-07
CG:           5   2.661314653E+00   2.859270932E-07
CG:           6   1.294664297E+00   2.859270932E-07
CG:           7   6.148574253E-01   2.859270932E-07
CG:           8   2.469196632E-01   2.859270932E-07
CG:           9   1.226703008E-01   2.859270932E-07
CG:          10   4.723050891E-02   2.859270932E-07
CG:          11   4.377425914E-02   2.859270932E-07
CG:          12   1.970823965E-02   2.859270932E-07
CG:          13   1.024280486E-02   2.859270932E-07
CG:          14   4.078250161E-03   2.859270932E-07
CG:          15   1.554600419E-03   2.859270932E-07
CG:          16   6.585274884E-04   2.859270932E-07
CG:          17   2.478577151E-04   2.859270932E-07
CG:          18   1.009008951E-04   2.859270932E-07
CG:          19   4.096467173E-05   2.859270932E-07
CG:          20   1.833791316E-05   2.859270932E-07
CG:          21   1.663584124E-05   2.859270932E-07
CG:          22   6.488082087E-06   2.859270932E-07
CG:          23   2.375888199E-06   2.859270932E-07
CG:          24   9.370796839E-07   2.859270932E-07
CG:          25   3.775966650E-07   2.859270932E-07
CG:          26   1.296218568E-07   2.859270932E-07
CG converged to    2.859270932E-07  in         26  iterations.
