CG:   Iteration   Error Estimate        Tolerance
CG:           1   5.271192921E+00   5.578022254E-08
CG:           2   3.207262928E+00   5.578022254E-08
CG:           3   1.216322021E+00   5.578022254E-08
CG:           4   5.301519979E-01   5.578022254E-08
CG:           5   2.605401732E-01   5.578022254E-08
CG:           6   1.101584868E-01   5.578022254E-08
CG:           7   4.810043752E-02   5.578022254E-08
CG:           8   1.658954137E-02   5.578022254E-08
CG:           9   6.883029344E-03   5.578022254E-08
CG:          10   2.352513381E-03   5.578022254E-08
CG:          11   9.975163399E-04   5.578022254E-08
CG:          12   2.712839459E-04   5.578022254E-08
CG:          13   8.970788996E-05   5.578022254E-08
CG:          14   3.537041849E-05   5.578022254E-08
CG:          15   1.170357241E-05   5.578022254E-08
CG:          16   5.001977815E-06   5.578022254E-08
CG:          17   1.754286368E-06   5.578022254E-08
CG:          18   5.622161409E-07   5.578022254E-08
CG:          19   1.591361419E-07   5.578022254E-08
CG:          20   4.994669215E-08   5.578022254E-08
CG converged to    5.578022254E-08  in         20  iterations.