G:   Iteration   Error Estimate        Tolerance
CG:           1   8.466246707E+03   1.318882434E-03
CG:           2   5.207722522E+02   1.318882434E-03
CG:           3   9.203963081E+01   1.318882434E-03
CG:           4   1.259547824E+01   1.318882434E-03
CG:           5   2.819177482E+00   1.318882434E-03
CG:           6   4.654390646E-01   1.318882434E-03
CG:           7   1.200724027E-01   1.318882434E-03
CG:           8   5.559855821E-02   1.318882434E-03
CG:           9   2.777204049E-02   1.318882434E-03
CG:          10   6.635756857E-03   1.318882434E-03
CG:          11   7.304523635E-03   1.318882434E-03
CG:          12   3.179562612E-03   1.318882434E-03
CG:          13   7.580897839E-04   1.318882434E-03
CG converged to    1.318882434E-03  in         13  iterations. 
num_coarse_dofs:                     120
Last iteration error estimate:    7.580897839E-04
num_sub_domains:                               8
num_total_cells:                            1728
num_dofs (sub-assembled):                   5184

